/*--------------------------------*- C++ -*----------------------------------*\
  =========                 |
  \\      /  F ield         | OpenFOAM: The Open Source CFD Toolbox
   \\    /   O peration     | Website:  https://openfoam.org
    \\  /    A nd           | Version:  8
     \\/     M anipulation  |
\*---------------------------------------------------------------------------*/
FoamFile
{
    version     2.0;
    format      ascii;
    class       volScalarField;
    location    "0";
    object      p;
}
// * * * * * * * * * * * * * * * * * * * * * * * * * * * * * * * * * * * * * //

dimensions      [0 2 -2 0 0 0 0];

internalField   nonuniform List<scalar> 
15200
(
0.634997
0.589119
0.547568
0.513415
0.487321
0.468406
0.454996
0.445299
0.43784
0.431543
0.425775
0.420196
0.4147
0.409271
0.403966
0.39882
0.393886
0.389162
0.384665
0.380361
0.376245
0.372277
0.36845
0.364727
0.361109
0.357565
0.354105
0.350699
0.347364
0.344068
0.340832
0.337623
0.334462
0.331319
0.328215
0.325118
0.322053
0.318987
0.315948
0.3129
0.309875
0.306834
0.303812
0.300768
0.297738
0.29468
0.291634
0.288553
0.285482
0.282369
0.279263
0.276109
0.272962
0.269759
0.266561
0.263301
0.260046
0.256722
0.253402
0.250005
0.246613
0.243137
0.239667
0.236104
0.232548
0.228891
0.225245
0.221489
0.217747
0.213887
0.210046
0.206077
0.202135
0.198053
0.194009
0.189814
0.185668
0.181359
0.177112
0.17269
0.168348
0.163819
0.159393
0.154766
0.150272
0.14556
0.141017
0.136235
0.131664
0.126831
0.122256
0.117392
0.112839
0.107962
0.10346
0.0985908
0.0941704
0.0893461
0.0850808
0.0804115
0.566025
0.547477
0.52642
0.504853
0.484879
0.4678
0.454038
0.443299
0.434949
0.428206
0.422443
0.417168
0.412126
0.407159
0.402254
0.397405
0.392672
0.388066
0.383633
0.379356
0.375256
0.371294
0.367481
0.36377
0.360176
0.356654
0.353222
0.34984
0.346531
0.343256
0.340041
0.336849
0.333706
0.330575
0.327485
0.324399
0.321348
0.318292
0.315265
0.312227
0.309214
0.306183
0.303171
0.300137
0.297118
0.294071
0.291035
0.287966
0.284904
0.281804
0.278708
0.275568
0.27243
0.269243
0.266054
0.262813
0.259567
0.256264
0.252952
0.24958
0.246197
0.242749
0.239286
0.235755
0.232207
0.228588
0.224949
0.221236
0.2175
0.213689
0.209853
0.20594
0.202
0.197983
0.193939
0.189817
0.185667
0.181441
0.177189
0.172865
0.168516
0.164103
0.159666
0.155175
0.150659
0.146105
0.141525
0.136924
0.132297
0.127671
0.123015
0.118385
0.113719
0.109111
0.104456
0.0998974
0.0952616
0.0907285
0.0859781
0.0811814
0.529523
0.521543
0.51039
0.49687
0.48226
0.467897
0.454836
0.443619
0.43435
0.426789
0.420534
0.415131
0.410218
0.40553
0.400935
0.396368
0.391839
0.387366
0.382991
0.378729
0.374607
0.370619
0.36677
0.36304
0.359425
0.355901
0.352462
0.349089
0.345779
0.342514
0.339298
0.336114
0.332966
0.329842
0.326747
0.323667
0.320609
0.317561
0.314528
0.311499
0.30848
0.30546
0.302443
0.299421
0.296398
0.293365
0.290326
0.287273
0.284209
0.281126
0.278029
0.274909
0.271771
0.268607
0.26542
0.262204
0.258961
0.255685
0.252379
0.249038
0.245661
0.242248
0.238795
0.235303
0.231768
0.228193
0.22457
0.220906
0.217191
0.213434
0.209623
0.20577
0.201861
0.197911
0.193902
0.189855
0.185748
0.181607
0.177409
0.173181
0.168899
0.164595
0.160239
0.155868
0.151448
0.147023
0.142554
0.13809
0.133589
0.129104
0.12459
0.120105
0.115598
0.111132
0.106648
0.102204
0.0977248
0.0932624
0.088741
0.0842854
0.505683
0.501487
0.494731
0.485673
0.474934
0.463409
0.452026
0.441524
0.43232
0.424513
0.417951
0.412359
0.407425
0.402878
0.398518
0.39423
0.389961
0.38571
0.381494
0.377344
0.373285
0.369337
0.365506
0.361795
0.358193
0.35469
0.351271
0.347926
0.344638
0.341403
0.338206
0.335048
0.331916
0.328813
0.325729
0.322667
0.319618
0.316585
0.31356
0.310546
0.307534
0.304528
0.301519
0.298512
0.295496
0.292478
0.289447
0.286409
0.283353
0.280288
0.2772
0.274099
0.270971
0.267827
0.264652
0.261459
0.25823
0.25498
0.251691
0.248378
0.245022
0.24164
0.238213
0.234756
0.231252
0.227716
0.224129
0.22051
0.216838
0.213132
0.209371
0.205576
0.201725
0.197839
0.193898
0.189923
0.185894
0.181836
0.177725
0.173591
0.169408
0.165206
0.160961
0.156703
0.152408
0.148108
0.143778
0.139451
0.135102
0.130767
0.126419
0.122094
0.117765
0.113468
0.109171
0.10491
0.100659
0.0964752
0.0923769
0.0884737
0.487599
0.484949
0.480334
0.473852
0.465832
0.4568
0.447381
0.43818
0.429657
0.422076
0.415497
0.409823
0.404853
0.400362
0.396142
0.392048
0.387991
0.383942
0.3799
0.375889
0.371932
0.368057
0.364276
0.360602
0.357028
0.353552
0.350157
0.346838
0.343576
0.340365
0.337193
0.334057
0.330946
0.327861
0.324793
0.321746
0.31871
0.31569
0.312676
0.309673
0.306672
0.303677
0.300679
0.297682
0.294677
0.29167
0.28865
0.285624
0.282581
0.279527
0.276453
0.273365
0.270254
0.267124
0.263968
0.260791
0.257584
0.254353
0.251088
0.247798
0.244471
0.241115
0.23772
0.234294
0.230827
0.227327
0.223784
0.220206
0.216584
0.212926
0.209222
0.205482
0.201696
0.197874
0.194007
0.190106
0.186161
0.182186
0.178171
0.174128
0.170052
0.165952
0.161824
0.15768
0.153514
0.149338
0.145148
0.140957
0.13676
0.132572
0.128388
0.124222
0.120071
0.115949
0.111856
0.107814
0.103838
0.0999712
0.0962539
0.0927449
0.47286
0.470962
0.467574
0.462751
0.456639
0.449546
0.441867
0.434035
0.426443
0.419394
0.413052
0.407436
0.402458
0.397971
0.393809
0.38983
0.38593
0.382055
0.378181
0.374319
0.370485
0.366706
0.362998
0.359376
0.355843
0.352399
0.349033
0.345739
0.342503
0.339317
0.33617
0.333056
0.329967
0.326902
0.323853
0.320822
0.317803
0.314796
0.311796
0.308806
0.305818
0.302834
0.299849
0.296863
0.293872
0.290876
0.28787
0.284856
0.281828
0.278787
0.275729
0.272656
0.269562
0.266449
0.263312
0.260154
0.256969
0.253759
0.250521
0.247254
0.243957
0.240629
0.237268
0.233875
0.230447
0.226985
0.223485
0.219951
0.216379
0.212771
0.209124
0.205442
0.20172
0.197964
0.194171
0.190344
0.186482
0.18259
0.178668
0.174719
0.170743
0.166747
0.16273
0.158699
0.154654
0.150601
0.146542
0.142484
0.138429
0.134385
0.130354
0.126346
0.122365
0.118423
0.114532
0.110713
0.106991
0.103398
0.0999665
0.0967313
0.460407
0.45896
0.456358
0.452632
0.447864
0.442218
0.435946
0.429346
0.42272
0.416335
0.410383
0.404957
0.400051
0.39559
0.391465
0.387561
0.383775
0.38004
0.376319
0.372604
0.368902
0.365233
0.361614
0.358061
0.354582
0.35118
0.347849
0.344586
0.341378
0.338219
0.335098
0.33201
0.328946
0.325903
0.322877
0.319865
0.316865
0.313876
0.310893
0.307918
0.304946
0.301976
0.299006
0.296035
0.293059
0.290077
0.287086
0.284087
0.281075
0.27805
0.27501
0.271953
0.268878
0.265784
0.262669
0.259531
0.25637
0.253184
0.249971
0.246732
0.243464
0.240168
0.23684
0.233483
0.230093
0.226671
0.223215
0.219727
0.216204
0.212648
0.209057
0.205433
0.201776
0.198086
0.194364
0.190612
0.18683
0.183022
0.179188
0.17533
0.171453
0.167557
0.163646
0.159724
0.155794
0.15186
0.147926
0.143996
0.140076
0.136171
0.132287
0.128432
0.124615
0.120849
0.117149
0.113536
0.110032
0.106661
0.103445
0.100402
0.449644
0.448501
0.446438
0.443472
0.439654
0.435078
0.429904
0.424337
0.418599
0.412904
0.407428
0.402289
0.397537
0.393156
0.389086
0.385245
0.381547
0.377926
0.374338
0.370761
0.367193
0.363644
0.360127
0.356656
0.353244
0.349894
0.346607
0.34338
0.340205
0.337077
0.333985
0.330924
0.327888
0.324871
0.32187
0.318882
0.315905
0.312936
0.309974
0.307017
0.304063
0.301111
0.298159
0.295204
0.292245
0.28928
0.286306
0.283324
0.28033
0.277323
0.274301
0.271264
0.268209
0.265136
0.262043
0.258928
0.255791
0.252631
0.249446
0.246235
0.242998
0.239734
0.236441
0.23312
0.229769
0.226388
0.222976
0.219534
0.216061
0.212557
0.209022
0.205457
0.201862
0.198238
0.194586
0.190908
0.187204
0.183477
0.179728
0.17596
0.172176
0.168378
0.164569
0.160752
0.156932
0.153112
0.149297
0.14549
0.141699
0.137927
0.134184
0.130477
0.126817
0.123217
0.119693
0.116262
0.112941
0.109748
0.106696
0.103795
0.440177
0.439251
0.437573
0.435152
0.432022
0.428246
0.423924
0.419196
0.414226
0.40918
0.404205
0.399417
0.394889
0.390644
0.386661
0.382893
0.379276
0.375754
0.372281
0.368831
0.36539
0.361962
0.358553
0.355175
0.351838
0.348551
0.345316
0.342132
0.338996
0.335901
0.332843
0.329813
0.326806
0.323819
0.320845
0.317884
0.314932
0.311987
0.309048
0.306112
0.303179
0.300247
0.297314
0.294378
0.291437
0.288491
0.285537
0.282573
0.279598
0.276611
0.27361
0.270593
0.26756
0.264509
0.261439
0.258349
0.255238
0.252104
0.248947
0.245766
0.242561
0.23933
0.236072
0.232788
0.229476
0.226136
0.222769
0.219373
0.215949
0.212498
0.209018
0.205511
0.201978
0.198419
0.194836
0.191229
0.187601
0.183953
0.180287
0.176606
0.172912
0.169207
0.165496
0.161781
0.158066
0.154356
0.150654
0.146966
0.143297
0.139654
0.136045
0.132479
0.128966
0.125519
0.122152
0.118878
0.115711
0.112662
0.109742
0.106959
0.431732
0.430966
0.429572
0.427557
0.424942
0.421771
0.418111
0.414061
0.409738
0.40527
0.400778
0.396366
0.392107
0.388044
0.384186
0.380511
0.376981
0.373551
0.370182
0.366845
0.363524
0.360211
0.356911
0.35363
0.350377
0.34716
0.343984
0.34085
0.337757
0.334701
0.331678
0.328682
0.325708
0.322751
0.319808
0.316875
0.313951
0.311032
0.308118
0.305206
0.302296
0.299386
0.296474
0.293558
0.290639
0.287712
0.284778
0.281835
0.278881
0.275915
0.272935
0.269941
0.26693
0.263903
0.260857
0.257793
0.254708
0.251602
0.248474
0.245324
0.24215
0.238953
0.235731
0.232484
0.229212
0.225914
0.22259
0.219241
0.215867
0.212466
0.209042
0.205592
0.20212
0.198624
0.195108
0.191571
0.188017
0.184445
0.18086
0.177262
0.173655
0.170041
0.166423
0.162806
0.159192
0.155587
0.151994
0.148419
0.144868
0.141347
0.137865
0.13443
0.131053
0.127745
0.124516
0.121378
0.118342
0.115415
0.112608
0.10993
0.424114
0.423469
0.422291
0.420585
0.418364
0.415661
0.412523
0.409019
0.405236
0.401272
0.397224
0.39318
0.389209
0.385361
0.381658
0.3781
0.374667
0.371331
0.36806
0.364828
0.361615
0.358413
0.355218
0.352035
0.348869
0.345727
0.342615
0.339536
0.336491
0.333478
0.330494
0.327534
0.324595
0.321671
0.31876
0.315858
0.312963
0.310073
0.307185
0.304299
0.301414
0.298527
0.295638
0.292745
0.289847
0.286943
0.284031
0.281109
0.278177
0.275233
0.272276
0.269305
0.266318
0.263315
0.260295
0.257256
0.254199
0.251121
0.248023
0.244904
0.241763
0.2386
0.235414
0.232205
0.228972
0.225716
0.222437
0.219134
0.215808
0.212459
0.209088
0.205696
0.202282
0.198849
0.195398
0.19193
0.188446
0.18495
0.181441
0.177924
0.174401
0.170874
0.167347
0.163824
0.160307
0.156802
0.153313
0.149846
0.146407
0.143001
0.139638
0.136326
0.133073
0.129888
0.126782
0.123763
0.12084
0.118021
0.115314
0.112732
0.417178
0.416627
0.415618
0.414152
0.41224
0.409905
0.407183
0.404123
0.40079
0.397259
0.393609
0.389911
0.386228
0.382608
0.379082
0.37566
0.372339
0.369101
0.365927
0.362793
0.359681
0.356581
0.353487
0.350399
0.34732
0.344257
0.341214
0.338195
0.335202
0.332236
0.329294
0.326373
0.32347
0.320581
0.317704
0.314834
0.31197
0.309109
0.30625
0.303391
0.300532
0.29767
0.294806
0.291937
0.289062
0.286181
0.283292
0.280393
0.277484
0.274564
0.27163
0.268683
0.265721
0.262744
0.25975
0.256738
0.253709
0.25066
0.247593
0.244505
0.241397
0.238269
0.235119
0.231948
0.228755
0.225541
0.222305
0.219048
0.215771
0.212473
0.209155
0.205818
0.202463
0.199091
0.195703
0.192301
0.188887
0.185462
0.182029
0.17859
0.175147
0.171705
0.168265
0.164831
0.161407
0.157998
0.154609
0.151244
0.14791
0.144613
0.141361
0.13816
0.13502
0.131947
0.12895
0.126037
0.123214
0.120492
0.117877
0.115381
0.410817
0.410341
0.409464
0.408189
0.406523
0.404484
0.402098
0.399401
0.396445
0.393285
0.389984
0.386603
0.383196
0.379806
0.376467
0.373195
0.369996
0.366865
0.363787
0.360748
0.357732
0.354728
0.351729
0.348733
0.345741
0.342757
0.339785
0.336829
0.333892
0.330976
0.328078
0.325199
0.322335
0.319482
0.31664
0.313803
0.310972
0.308142
0.305313
0.302483
0.299651
0.296816
0.293977
0.291134
0.288284
0.285427
0.282562
0.279687
0.276802
0.273906
0.270997
0.268075
0.265139
0.262188
0.259221
0.256237
0.253236
0.250218
0.247181
0.244126
0.241051
0.237957
0.234844
0.231711
0.228558
0.225386
0.222194
0.218982
0.215752
0.212504
0.209238
0.205956
0.202658
0.199346
0.19602
0.192683
0.189336
0.185981
0.18262
0.179256
0.175892
0.17253
0.169173
0.165825
0.162491
0.159174
0.155879
0.152611
0.149376
0.14618
0.14303
0.139932
0.136894
0.133922
0.131023
0.128205
0.125475
0.12284
0.120309
0.117891
0.404948
0.40453
0.40376
0.40264
0.401173
0.399374
0.397263
0.394868
0.392226
0.389384
0.38639
0.383294
0.380143
0.376977
0.373826
0.370711
0.367643
0.364623
0.361646
0.358701
0.355777
0.352863
0.349954
0.347046
0.344138
0.341233
0.338333
0.335442
0.332564
0.3297
0.326851
0.324015
0.321191
0.318377
0.31557
0.312769
0.30997
0.307172
0.304374
0.301574
0.298771
0.295965
0.293153
0.290336
0.287512
0.28468
0.28184
0.278991
0.276131
0.27326
0.270377
0.267481
0.264571
0.261647
0.258707
0.255752
0.25278
0.249792
0.246787
0.243764
0.240723
0.237664
0.234588
0.231493
0.228379
0.225248
0.2221
0.218934
0.215751
0.212552
0.209337
0.206109
0.202866
0.199612
0.196347
0.193072
0.18979
0.186503
0.183213
0.179921
0.176632
0.173347
0.17007
0.166805
0.163555
0.160325
0.157119
0.153943
0.150801
0.147699
0.144643
0.14164
0.138695
0.135815
0.133006
0.130275
0.127628
0.125074
0.122619
0.120272
0.399503
0.399133
0.398451
0.397457
0.396154
0.394553
0.392669
0.390525
0.38815
0.385579
0.382853
0.380013
0.377097
0.374141
0.371174
0.368218
0.365284
0.362381
0.359506
0.356655
0.35382
0.350995
0.348171
0.345347
0.34252
0.339692
0.336864
0.33404
0.331222
0.328413
0.325613
0.322822
0.320041
0.317266
0.314497
0.311731
0.308967
0.306203
0.303437
0.300668
0.297895
0.295117
0.292333
0.289543
0.286746
0.283941
0.281127
0.278304
0.27547
0.272625
0.269769
0.266899
0.264016
0.26112
0.258208
0.255282
0.25234
0.249383
0.246409
0.243419
0.240412
0.237389
0.234348
0.231291
0.228218
0.225128
0.222022
0.218901
0.215764
0.212614
0.20945
0.206273
0.203085
0.199887
0.196681
0.193467
0.190249
0.187027
0.183804
0.180582
0.177365
0.174155
0.170954
0.167768
0.164599
0.161451
0.15833
0.155239
0.152183
0.149169
0.1462
0.143284
0.140425
0.137629
0.134902
0.132251
0.129681
0.127201
0.124815
0.122531
0.39443
0.394101
0.393491
0.392601
0.391434
0.389998
0.388304
0.386371
0.384222
0.381886
0.379394
0.37678
0.374078
0.371318
0.368527
0.365725
0.362927
0.360141
0.35737
0.354614
0.351868
0.349127
0.346387
0.343644
0.340895
0.338142
0.335385
0.332627
0.32987
0.327116
0.324368
0.321624
0.318886
0.316153
0.313422
0.310693
0.307964
0.305234
0.302501
0.299763
0.297021
0.294273
0.291519
0.288758
0.285988
0.283211
0.280424
0.277627
0.27482
0.272002
0.269172
0.26633
0.263475
0.260606
0.257724
0.254827
0.251915
0.248989
0.246047
0.24309
0.240117
0.237129
0.234125
0.231106
0.228071
0.225022
0.221959
0.218881
0.215791
0.212688
0.209573
0.206447
0.203313
0.20017
0.197021
0.193866
0.190708
0.18755
0.184392
0.181238
0.178089
0.17495
0.171823
0.168711
0.165619
0.162549
0.159507
0.156497
0.153522
0.150589
0.147702
0.144865
0.142085
0.139367
0.136716
0.134139
0.13164
0.129226
0.126904
0.124677
0.389687
0.38939
0.388841
0.388039
0.386986
0.385689
0.384155
0.382402
0.380446
0.378312
0.376024
0.373612
0.371103
0.368523
0.365897
0.363244
0.360578
0.357909
0.355244
0.352583
0.349925
0.347267
0.344607
0.341941
0.339268
0.336588
0.3339
0.331208
0.328512
0.325815
0.323119
0.320424
0.31773
0.315039
0.312348
0.309656
0.306963
0.304268
0.301568
0.298863
0.296153
0.293435
0.290711
0.287979
0.285238
0.282488
0.279729
0.27696
0.274181
0.27139
0.268588
0.265774
0.262947
0.260107
0.257253
0.254386
0.251505
0.248609
0.245699
0.242775
0.239836
0.236883
0.233916
0.230934
0.227939
0.22493
0.221908
0.218874
0.215828
0.212772
0.209705
0.20663
0.203547
0.200458
0.197364
0.194266
0.191168
0.18807
0.184975
0.181885
0.178803
0.175732
0.172675
0.169634
0.166614
0.163619
0.160651
0.157716
0.154817
0.151959
0.149147
0.146385
0.143679
0.141033
0.138452
0.135942
0.133508
0.131156
0.128891
0.126716
0.385237
0.384969
0.384471
0.383743
0.382787
0.381607
0.38021
0.37861
0.37682
0.374861
0.372753
0.370519
0.368183
0.365769
0.363297
0.360784
0.358246
0.355693
0.353131
0.350564
0.347994
0.345418
0.342836
0.340246
0.337646
0.335036
0.332416
0.329787
0.327152
0.324512
0.321868
0.319222
0.316575
0.313926
0.311275
0.308622
0.305966
0.303305
0.30064
0.297968
0.29529
0.292604
0.28991
0.287207
0.284496
0.281775
0.279044
0.276303
0.273552
0.270789
0.268015
0.265229
0.26243
0.259619
0.256795
0.253958
0.251107
0.248243
0.245366
0.242474
0.239569
0.236651
0.23372
0.230775
0.227818
0.224849
0.221869
0.218877
0.215876
0.212865
0.209845
0.206819
0.203786
0.200749
0.197709
0.194667
0.191625
0.188586
0.185551
0.182523
0.179505
0.176499
0.173508
0.170535
0.167584
0.164657
0.16176
0.158895
0.156067
0.15328
0.150538
0.147846
0.145208
0.142628
0.140112
0.137665
0.135291
0.132995
0.130781
0.128655
0.381053
0.380808
0.380354
0.379689
0.378815
0.377736
0.376457
0.374988
0.373342
0.371535
0.369584
0.367509
0.36533
0.363066
0.360736
0.358356
0.35594
0.353498
0.351037
0.348564
0.346079
0.343585
0.341079
0.338562
0.336032
0.33349
0.330936
0.32837
0.325795
0.32321
0.320619
0.318023
0.315422
0.312816
0.310206
0.307592
0.304973
0.302349
0.299718
0.297079
0.294433
0.291779
0.289116
0.286444
0.283762
0.281071
0.278369
0.275657
0.272934
0.270199
0.267453
0.264696
0.261926
0.259144
0.25635
0.253543
0.250723
0.24789
0.245044
0.242186
0.239315
0.236431
0.233536
0.230628
0.227709
0.22478
0.221839
0.21889
0.215931
0.212965
0.209991
0.207012
0.204029
0.201042
0.198053
0.195065
0.192078
0.189096
0.186119
0.183151
0.180193
0.177249
0.174321
0.171412
0.168526
0.165665
0.162834
0.160035
0.157274
0.154553
0.151876
0.149248
0.146673
0.144156
0.1417
0.139311
0.136991
0.134747
0.132581
0.130498
0.377107
0.376883
0.376466
0.375856
0.375053
0.37406
0.372883
0.371528
0.370008
0.368334
0.366522
0.364588
0.362548
0.360421
0.358222
0.355966
0.353665
0.35133
0.348968
0.346585
0.344185
0.341769
0.339338
0.336893
0.334432
0.331956
0.329465
0.32696
0.324443
0.321914
0.319375
0.316828
0.314273
0.311711
0.309143
0.306569
0.303987
0.301399
0.298802
0.296198
0.293585
0.290963
0.288331
0.28569
0.283038
0.280376
0.277703
0.27502
0.272326
0.26962
0.266903
0.264174
0.261434
0.258681
0.255916
0.253139
0.25035
0.247548
0.244735
0.241909
0.239072
0.236223
0.233363
0.230491
0.22761
0.224719
0.221819
0.21891
0.215994
0.213071
0.210142
0.207209
0.204273
0.201335
0.198397
0.19546
0.192527
0.189598
0.186677
0.183766
0.180866
0.177981
0.175113
0.172265
0.16944
0.166641
0.163872
0.161136
0.158437
0.155777
0.153162
0.150595
0.148079
0.145619
0.143219
0.140882
0.138614
0.136417
0.134295
0.132252
0.37338
0.373174
0.372789
0.372226
0.371485
0.370567
0.369478
0.368223
0.366812
0.365255
0.363566
0.361757
0.359844
0.357841
0.355762
0.35362
0.351428
0.349194
0.346927
0.344633
0.342315
0.339976
0.337618
0.335241
0.332847
0.330435
0.328006
0.325561
0.3231
0.320626
0.318139
0.31564
0.313132
0.310614
0.308087
0.305552
0.303009
0.300457
0.297895
0.295325
0.292745
0.290155
0.287555
0.284944
0.282323
0.279691
0.277048
0.274394
0.271729
0.269052
0.266364
0.263664
0.260952
0.258229
0.255494
0.252747
0.249989
0.247218
0.244437
0.241643
0.238839
0.236024
0.233199
0.230364
0.22752
0.224666
0.221805
0.218936
0.216061
0.213181
0.210296
0.207408
0.204518
0.201627
0.198738
0.195851
0.192968
0.190092
0.187224
0.184367
0.181523
0.178694
0.175883
0.173092
0.170326
0.167586
0.164875
0.162198
0.159557
0.156956
0.154397
0.151886
0.149425
0.147019
0.14467
0.142383
0.140161
0.138008
0.135927
0.133921
0.369854
0.369662
0.369306
0.368784
0.368096
0.367244
0.366232
0.365065
0.36375
0.362297
0.360716
0.359019
0.357219
0.355329
0.35336
0.351325
0.349234
0.347097
0.34492
0.34271
0.340472
0.338208
0.33592
0.333612
0.331282
0.328932
0.326563
0.324175
0.32177
0.319349
0.316912
0.314462
0.312
0.309526
0.30704
0.304545
0.302039
0.299524
0.296998
0.294462
0.291915
0.289357
0.286789
0.284209
0.281619
0.279016
0.276403
0.273778
0.271142
0.268494
0.265835
0.263164
0.260482
0.257788
0.255083
0.252366
0.249638
0.246899
0.244149
0.241388
0.238617
0.235835
0.233045
0.230245
0.227437
0.224621
0.221798
0.218968
0.216133
0.213294
0.210452
0.207607
0.204762
0.201917
0.199075
0.196236
0.193402
0.190576
0.187759
0.184954
0.182163
0.179387
0.17663
0.173895
0.171183
0.168498
0.165843
0.163221
0.160635
0.158088
0.155583
0.153124
0.150715
0.148358
0.146058
0.143816
0.141638
0.139525
0.137481
0.135509
0.366512
0.366334
0.366002
0.365516
0.364875
0.364081
0.363137
0.362046
0.360816
0.359455
0.357971
0.356375
0.354677
0.352889
0.351021
0.349085
0.347088
0.345041
0.34295
0.340821
0.338659
0.336468
0.334249
0.332006
0.329738
0.327449
0.325137
0.322806
0.320455
0.318085
0.315698
0.313296
0.310879
0.308448
0.306004
0.303548
0.301081
0.298601
0.296111
0.293609
0.291095
0.28857
0.286033
0.283485
0.280924
0.278352
0.275769
0.273173
0.270566
0.267948
0.265318
0.262676
0.260023
0.257358
0.254683
0.251996
0.249298
0.24659
0.243871
0.241142
0.238403
0.235655
0.232898
0.230133
0.227361
0.224581
0.221795
0.219004
0.216209
0.21341
0.210609
0.207806
0.205004
0.202204
0.199406
0.196614
0.193827
0.191049
0.188281
0.185526
0.182785
0.18006
0.177355
0.174671
0.172012
0.169379
0.166776
0.164206
0.161671
0.159175
0.156721
0.154311
0.15195
0.149639
0.147383
0.145184
0.143045
0.14097
0.138961
0.13702
0.363341
0.363175
0.362865
0.36241
0.361811
0.361068
0.360183
0.359161
0.358006
0.356727
0.355329
0.353823
0.352218
0.350523
0.348747
0.346901
0.344993
0.343031
0.341021
0.338969
0.33688
0.334758
0.332606
0.330426
0.328219
0.325988
0.323733
0.321455
0.319157
0.316837
0.314499
0.312143
0.309771
0.307383
0.30498
0.302563
0.300133
0.297691
0.295235
0.292767
0.290287
0.287794
0.285289
0.282771
0.280241
0.2777
0.275146
0.27258
0.270002
0.267412
0.264811
0.262198
0.259574
0.256939
0.254293
0.251635
0.248968
0.24629
0.243602
0.240905
0.238198
0.235483
0.232759
0.230029
0.227291
0.224547
0.221798
0.219044
0.216287
0.213527
0.210766
0.208004
0.205244
0.202486
0.199732
0.196984
0.194243
0.191511
0.18879
0.186082
0.183389
0.180713
0.178056
0.175422
0.172812
0.170228
0.167675
0.165154
0.162667
0.160219
0.157812
0.155448
0.153131
0.150864
0.148649
0.146489
0.144388
0.142347
0.14037
0.138458
0.36033
0.360174
0.359883
0.359457
0.358894
0.358196
0.357364
0.356403
0.355315
0.354108
0.352789
0.351364
0.349842
0.348231
0.346541
0.344778
0.342952
0.341069
0.339135
0.337156
0.335138
0.333082
0.330994
0.328875
0.326727
0.324552
0.322351
0.320126
0.317878
0.315608
0.313317
0.311007
0.308678
0.306332
0.30397
0.301592
0.299199
0.296793
0.294372
0.291938
0.28949
0.28703
0.284556
0.282069
0.27957
0.277058
0.274534
0.271997
0.269448
0.266888
0.264315
0.261731
0.259136
0.25653
0.253913
0.251285
0.248647
0.245999
0.243342
0.240676
0.238001
0.235318
0.232627
0.22993
0.227226
0.224517
0.221803
0.219086
0.216366
0.213644
0.210921
0.2082
0.20548
0.202763
0.200051
0.197346
0.194648
0.191961
0.189284
0.186621
0.183974
0.181344
0.178734
0.176146
0.173583
0.171046
0.168539
0.166064
0.163623
0.16122
0.158857
0.156536
0.154261
0.152033
0.149857
0.147734
0.145667
0.143659
0.141711
0.139826
0.357468
0.357321
0.357047
0.356645
0.356115
0.355457
0.354673
0.353766
0.352738
0.351597
0.350347
0.348995
0.347548
0.346015
0.344402
0.342717
0.340966
0.339157
0.337295
0.335386
0.333434
0.331442
0.329415
0.327355
0.325263
0.323143
0.320995
0.318821
0.316622
0.314399
0.312154
0.309888
0.307602
0.305297
0.302975
0.300635
0.29828
0.295908
0.293522
0.291122
0.288707
0.286278
0.283836
0.28138
0.278911
0.276428
0.273933
0.271426
0.268906
0.266374
0.26383
0.261275
0.258708
0.256131
0.253542
0.250944
0.248335
0.245717
0.24309
0.240454
0.237811
0.235159
0.232501
0.229836
0.227166
0.224491
0.221812
0.21913
0.216446
0.213761
0.211076
0.208392
0.205711
0.203035
0.200363
0.197699
0.195043
0.192397
0.189764
0.187144
0.18454
0.181954
0.179389
0.176845
0.174326
0.171833
0.16937
0.166938
0.16454
0.162179
0.159857
0.157577
0.15534
0.153151
0.15101
0.148921
0.146886
0.144908
0.142987
0.141128
0.354745
0.354607
0.354348
0.353968
0.353467
0.352845
0.352103
0.351244
0.350271
0.349188
0.348001
0.346715
0.345338
0.343874
0.342332
0.340718
0.339038
0.337298
0.335503
0.333659
0.33177
0.32984
0.327871
0.325867
0.32383
0.321762
0.319665
0.31754
0.315388
0.313212
0.311011
0.308789
0.306544
0.30428
0.301996
0.299694
0.297375
0.295039
0.292687
0.29032
0.287937
0.28554
0.283129
0.280703
0.278264
0.275811
0.273345
0.270866
0.268375
0.265871
0.263356
0.260829
0.258291
0.255742
0.253182
0.250612
0.248033
0.245444
0.242846
0.240241
0.237627
0.235007
0.23238
0.229747
0.227109
0.224467
0.221822
0.219174
0.216525
0.213876
0.211228
0.208581
0.205938
0.203299
0.200667
0.198042
0.195426
0.192821
0.190228
0.18765
0.185087
0.182543
0.180019
0.177518
0.17504
0.172589
0.170167
0.167777
0.165419
0.163098
0.160814
0.158571
0.156371
0.154217
0.15211
0.150053
0.148047
0.146096
0.144202
0.142365
0.352154
0.352023
0.351778
0.351418
0.350943
0.350353
0.34965
0.348834
0.347909
0.346879
0.345749
0.344523
0.343208
0.341809
0.340332
0.338783
0.337168
0.335492
0.333761
0.331979
0.330149
0.328277
0.326364
0.324414
0.322429
0.320412
0.318363
0.316286
0.31418
0.312048
0.309891
0.30771
0.305506
0.303281
0.301036
0.29877
0.296487
0.294186
0.291867
0.289533
0.287182
0.284816
0.282435
0.28004
0.27763
0.275206
0.272769
0.270319
0.267856
0.26538
0.262893
0.260394
0.257883
0.255362
0.252831
0.250289
0.247738
0.245178
0.24261
0.240034
0.23745
0.23486
0.232263
0.229662
0.227056
0.224446
0.221834
0.21922
0.216605
0.21399
0.211376
0.208766
0.206159
0.203557
0.200962
0.198374
0.195797
0.19323
0.190677
0.188138
0.185615
0.183111
0.180626
0.178164
0.175727
0.173315
0.170932
0.16858
0.166261
0.163976
0.161729
0.159521
0.157356
0.155234
0.153158
0.15113
0.149153
0.147228
0.145357
0.143541
0.349688
0.349563
0.34933
0.348988
0.348537
0.347976
0.347306
0.34653
0.345649
0.344667
0.343588
0.342417
0.341159
0.339818
0.338401
0.336913
0.335358
0.333742
0.33207
0.330345
0.328572
0.326754
0.324895
0.322997
0.321062
0.319093
0.317092
0.315059
0.312998
0.310909
0.308794
0.306653
0.304489
0.302302
0.300094
0.297865
0.295616
0.293349
0.291064
0.288761
0.286442
0.284107
0.281756
0.27939
0.277009
0.274614
0.272206
0.269783
0.267348
0.2649
0.262441
0.259969
0.257486
0.254993
0.252489
0.249975
0.247452
0.244921
0.242381
0.239833
0.237279
0.234718
0.232152
0.229581
0.227005
0.224427
0.221847
0.219265
0.216683
0.214101
0.211522
0.208945
0.206373
0.203807
0.201247
0.198697
0.196155
0.193626
0.19111
0.188608
0.186123
0.183656
0.18121
0.178786
0.176385
0.174011
0.171665
0.169349
0.167065
0.164816
0.162603
0.160428
0.158295
0.156203
0.154156
0.152156
0.150205
0.148303
0.146454
0.144659
0.347339
0.347221
0.346999
0.346673
0.346242
0.345707
0.345069
0.344327
0.343486
0.342548
0.341516
0.340394
0.339188
0.337901
0.336539
0.335107
0.333608
0.332048
0.33043
0.32876
0.32704
0.325274
0.323466
0.321617
0.31973
0.317807
0.315851
0.313863
0.311844
0.309797
0.307722
0.305621
0.303495
0.301345
0.299172
0.296979
0.294764
0.29253
0.290277
0.288006
0.285718
0.283413
0.281091
0.278754
0.276402
0.274036
0.271655
0.26926
0.266853
0.264432
0.261999
0.259555
0.257099
0.254633
0.252156
0.24967
0.247174
0.24467
0.242158
0.239639
0.237113
0.234581
0.232044
0.229502
0.226957
0.224409
0.22186
0.219309
0.216759
0.21421
0.211663
0.20912
0.206581
0.204049
0.201524
0.199008
0.196502
0.194007
0.191527
0.189061
0.186611
0.184181
0.18177
0.179382
0.177017
0.174678
0.172366
0.170085
0.167835
0.165618
0.163437
0.161293
0.159189
0.157127
0.155107
0.153133
0.151205
0.149326
0.147497
0.14572
0.345103
0.344989
0.344777
0.344466
0.344054
0.343543
0.342932
0.342223
0.341418
0.340519
0.33953
0.338454
0.337295
0.336058
0.334746
0.333365
0.331918
0.33041
0.328844
0.327224
0.325555
0.323838
0.322077
0.320275
0.318434
0.316556
0.314643
0.312696
0.310719
0.308711
0.306675
0.304612
0.302523
0.300409
0.298272
0.296112
0.293931
0.29173
0.289508
0.287268
0.28501
0.282734
0.280442
0.278134
0.27581
0.273471
0.271117
0.26875
0.266369
0.263975
0.261569
0.259151
0.256722
0.254282
0.251832
0.249373
0.246904
0.244427
0.241942
0.23945
0.236952
0.234448
0.23194
0.229427
0.226911
0.224393
0.221873
0.219353
0.216833
0.214315
0.2118
0.209288
0.206782
0.204282
0.20179
0.199307
0.196835
0.194374
0.191927
0.189496
0.18708
0.184684
0.182307
0.179952
0.177621
0.175315
0.173037
0.170787
0.168569
0.166383
0.164232
0.162118
0.160042
0.158005
0.156011
0.154061
0.152155
0.150297
0.148487
0.146726
0.342973
0.342864
0.342661
0.342363
0.341969
0.341479
0.340894
0.340214
0.339441
0.338578
0.337628
0.336593
0.335478
0.334286
0.333021
0.331687
0.330288
0.328828
0.32731
0.325739
0.324116
0.322446
0.32073
0.318973
0.317175
0.315339
0.313468
0.311562
0.309624
0.307655
0.305656
0.30363
0.301576
0.299497
0.297394
0.295267
0.293119
0.290948
0.288758
0.286548
0.284319
0.282073
0.279809
0.277528
0.275232
0.27292
0.270593
0.268252
0.265898
0.263531
0.261151
0.258759
0.256355
0.253942
0.251517
0.249084
0.246641
0.244191
0.241733
0.239268
0.236796
0.23432
0.231839
0.229354
0.226866
0.224376
0.221886
0.219395
0.216905
0.214417
0.211932
0.209451
0.206976
0.204507
0.202047
0.199595
0.197155
0.194727
0.192312
0.189913
0.18753
0.185165
0.182821
0.180498
0.178199
0.175925
0.173677
0.171458
0.169269
0.167113
0.16499
0.162902
0.160852
0.158841
0.156871
0.154942
0.153058
0.151218
0.149426
0.147681
0.340945
0.340841
0.340646
0.34036
0.339981
0.339511
0.338949
0.338295
0.337552
0.336722
0.335807
0.334811
0.333735
0.332585
0.331363
0.330073
0.328719
0.327303
0.325831
0.324303
0.322725
0.321098
0.319426
0.31771
0.315954
0.314159
0.312327
0.31046
0.308559
0.306627
0.304665
0.302673
0.300654
0.298609
0.296539
0.294444
0.292327
0.290187
0.288027
0.285846
0.283646
0.281428
0.279191
0.276938
0.274669
0.272383
0.270083
0.267768
0.265439
0.263097
0.260743
0.258376
0.255999
0.25361
0.251211
0.248803
0.246386
0.243962
0.241529
0.23909
0.236645
0.234195
0.231741
0.229283
0.226823
0.22436
0.221898
0.219435
0.216973
0.214514
0.212058
0.209607
0.207162
0.204723
0.202293
0.199872
0.197462
0.195064
0.19268
0.190312
0.18796
0.185626
0.183312
0.18102
0.178751
0.176506
0.174287
0.172097
0.169936
0.167807
0.165711
0.163649
0.161623