/*--------------------------------*- C++ -*----------------------------------*\
  =========                 |
  \\      /  F ield         | OpenFOAM: The Open Source CFD Toolbox
   \\    /   O peration     | Website:  https://openfoam.org
    \\  /    A nd           | Version:  8
     \\/     M anipulation  |
\*---------------------------------------------------------------------------*/
FoamFile
{
    version     2.0;
    format      ascii;
    class       volVectorField;
    location    "0";
    object      UB;
}
// * * * * * * * * * * * * * * * * * * * * * * * * * * * * * * * * * * * * * //

dimensions      [0 1 -1 0 0 0 0];

internalField   nonuniform List<vector> 
15200
(
(3.73625 0.00557083 0)
(3.7171 0.0127374 0)
(3.70077 0.016517 0)
(3.6784 0.0181692 0)
(3.65805 0.018548 0)
(3.6315 0.0185459 0)
(3.60789 0.0184249 0)
(3.57874 0.018525 0)
(3.55368 0.01869 0)
(3.5235 0.0190408 0)
(3.49815 0.0193257 0)
(3.46765 0.019676 0)
(3.4424 0.019868 0)
(3.41172 0.0200898 0)
(3.38661 0.0201424 0)
(3.3557 0.0202504 0)
(3.3307 0.0202111 0)
(3.2995 0.0202632 0)
(3.2746 0.020184 0)
(3.2431 0.0202212 0)
(3.21832 0.0201287 0)
(3.18653 0.0201664 0)
(3.16192 0.0200665 0)
(3.12984 0.0201058 0)
(3.10545 0.0199955 0)
(3.07308 0.0200338 0)
(3.04895 0.0199098 0)
(3.01628 0.0199458 0)
(2.99243 0.0198068 0)
(2.95945 0.0198417 0)
(2.93592 0.0196879 0)
(2.90262 0.0197239 0)
(2.87944 0.019556 0)
(2.8458 0.0195953 0)
(2.82301 0.0194133 0)
(2.789 0.0194579 0)
(2.76665 0.0192615 0)
(2.73224 0.0193131 0)
(2.71037 0.0191011 0)
(2.67554 0.0191613 0)
(2.6542 0.0189324 0)
(2.61891 0.019003 0)
(2.59814 0.0187555 0)
(2.56235 0.0188383 0)
(2.54223 0.0185701 0)
(2.50589 0.0186674 0)
(2.48647 0.0183759 0)
(2.44955 0.0184903 0)
(2.4309 0.0181727 0)
(2.39333 0.0183069 0)
(2.37554 0.0179596 0)
(2.33725 0.0181171 0)
(2.32042 0.0177358 0)
(2.28135 0.0179205 0)
(2.26556 0.0175003 0)
(2.22563 0.0177168 0)
(2.21101 0.0172517 0)
(2.17013 0.0175054 0)
(2.15679 0.0169883 0)
(2.11486 0.0172856 0)
(2.10296 0.0167081 0)
(2.05987 0.0170567 0)
(2.04957 0.0164088 0)
(2.00518 0.0168179 0)
(1.99666 0.0160874 0)
(1.95084 0.0165679 0)
(1.9443 0.0157403 0)
(1.89689 0.0163059 0)
(1.89257 0.0153638 0)
(1.84337 0.0160307 0)
(1.84155 0.0149531 0)
(1.79034 0.0157416 0)
(1.79131 0.0145033 0)
(1.73786 0.0154381 0)
(1.74198 0.0140084 0)
(1.686 0.0151201 0)
(1.69366 0.0134618 0)
(1.63483 0.0147879 0)
(1.6465 0.0128556 0)
(1.58443 0.0144408 0)
(1.60066 0.0121772 0)
(1.53488 0.014076 0)
(1.55626 0.0114089 0)
(1.48632 0.0136924 0)
(1.51346 0.010533 0)
(1.43884 0.0132929 0)
(1.47244 0.00953192 0)
(1.39258 0.0128844 0)
(1.43336 0.00838613 0)
(1.34766 0.0124788 0)
(1.39642 0.00707456 0)
(1.30424 0.0120952 0)
(1.3618 0.00557414 0)
(1.26249 0.0117614 0)
(1.32968 0.003857 0)
(1.22269 0.0115125 0)
(1.30021 0.00188726 0)
(1.18511 0.0114055 0)
(1.27331 -0.000312898 0)
(1.14961 0.0117242 0)
(3.75541 0.00831381 0)
(3.7492 0.0196973 0)
(3.76565 0.0261237 0)
(3.75939 0.0293808 0)
(3.77563 0.0303133 0)
(3.76729 0.0305335 0)
(3.782 0.0302605 0)
(3.77103 0.0303973 0)
(3.78441 0.0305229 0)
(3.7714 0.0311432 0)
(3.78421 0.0315941 0)
(3.76981 0.0323446 0)
(3.78258 0.0327381 0)
(3.76708 0.0333363 0)
(3.78001 0.0335234 0)
(3.76342 0.0339373 0)
(3.77655 0.0339618 0)
(3.75883 0.0342732 0)
(3.77214 0.0342223 0)
(3.75324 0.034507 0)
(3.76678 0.0344354 0)
(3.74666 0.0347282 0)
(3.76047 0.0346518 0)
(3.73913 0.0349569 0)
(3.75327 0.0348716 0)
(3.73068 0.035183 0)
(3.7452 0.0350813 0)
(3.72135 0.0353943 0)
(3.7363 0.0352724 0)
(3.71117 0.0355864 0)
(3.72659 0.0354439 0)
(3.70014 0.035761 0)
(3.7161 0.0355989 0)
(3.68829 0.0359216 0)
(3.70484 0.0357406 0)
(3.67564 0.0360708 0)
(3.69282 0.0358707 0)
(3.66219 0.0362097 0)
(3.68005 0.0359897 0)
(3.64795 0.0363385 0)
(3.66656 0.0360974 0)
(3.63294 0.0364567 0)
(3.65235 0.0361933 0)
(3.61717 0.036564 0)
(3.63743 0.0362766 0)
(3.60064 0.0366596 0)
(3.62182 0.0363468 0)
(3.58337 0.0367429 0)
(3.60552 0.0364029 0)
(3.56536 0.036813 0)
(3.58856 0.0364437 0)
(3.54663 0.0368687 0)
(3.57093 0.036468 0)
(3.52719 0.0369088 0)
(3.55267 0.0364742 0)
(3.50706 0.0369316 0)
(3.53377 0.0364606 0)
(3.48624 0.0369355 0)
(3.51426 0.0364252 0)
(3.46475 0.0369185 0)
(3.49416 0.0363658 0)
(3.44262 0.0368784 0)
(3.47348 0.0362796 0)
(3.41986 0.0368124 0)
(3.45225 0.0361636 0)
(3.39651 0.0367172 0)
(3.43049 0.0360142 0)
(3.37258 0.0365892 0)
(3.40823 0.0358272 0)
(3.34812 0.0364242 0)
(3.3855 0.0355984 0)
(3.32316 0.0362178 0)
(3.36233 0.0353229 0)
(3.29775 0.0359651 0)
(3.33877 0.0349956 0)
(3.27193 0.035661 0)
(3.31486 0.034611 0)
(3.24578 0.0352991 0)
(3.29066 0.0341618 0)
(3.21934 0.0348705 0)
(3.26622 0.0336374 0)
(3.19271 0.034363 0)
(3.2416 0.0330249 0)
(3.16598 0.0337639 0)
(3.21685 0.0323118 0)
(3.13925 0.0330615 0)
(3.19203 0.0314874 0)
(3.11264 0.0322454 0)
(3.16721 0.0305422 0)
(3.08626 0.031306 0)
(3.14246 0.0294683 0)
(3.06027 0.0302355 0)
(3.11787 0.0282594 0)
(3.03483 0.0290272 0)
(3.09349 0.0269116 0)
(3.01013 0.0276787 0)
(3.0694 0.0254307 0)
(2.98642 0.0262094 0)
(3.04566 0.0238652 0)
(2.96392 0.0247024 0)
(3.75486 0.00440864 0)
(3.74712 0.0116918 0)
(3.76014 0.0167164 0)
(3.7536 0.0202196 0)
(3.76785 0.0219181 0)
(3.76123 0.0229686 0)
(3.77536 0.0231825 0)
(3.76758 0.0236037 0)
(3.781 0.0237486 0)
(3.77191 0.0244026 0)
(3.78482 0.0248247 0)
(3.7748 0.0256965 0)
(3.78764 0.0261955 0)
(3.77708 0.0270426 0)
(3.79012 0.0274213 0)
(3.77915 0.0281277 0)
(3.79246 0.028348 0)
(3.78109 0.0289351 0)
(3.79464 0.0290513 0)
(3.78281 0.0295852 0)
(3.79657 0.0296577 0)
(3.78428 0.0301855 0)
(3.79823 0.0302438 0)
(3.78546 0.0307811 0)
(3.79962 0.0308288 0)
(3.78638 0.0313735 0)
(3.80076 0.0314046 0)
(3.78705 0.0319515 0)
(3.80165 0.0319615 0)
(3.78749 0.0325087 0)
(3.80231 0.0324964 0)
(3.78769 0.033045 0)
(3.80274 0.0330113 0)
(3.78766 0.0335637 0)
(3.80293 0.0335099 0)
(3.7874 0.0340681 0)
(3.80288 0.0339946 0)
(3.7869 0.0345597 0)
(3.80259 0.0344665 0)
(3.78616 0.0350393 0)
(3.80205 0.0349256 0)
(3.78517 0.0355065 0)
(3.80125 0.0353716 0)
(3.78393 0.0359608 0)
(3.80019 0.0358036 0)
(3.78244 0.0364015 0)
(3.79886 0.036221 0)
(3.78068 0.0368276 0)
(3.79725 0.0366228 0)
(3.77865 0.0372381 0)
(3.79536 0.0370076 0)
(3.77636 0.0376316 0)
(3.79317 0.0373741 0)
(3.77378 0.0380065 0)
(3.79069 0.0377203 0)
(3.77093 0.0383608 0)
(3.78791 0.0380441 0)
(3.76779 0.0386922 0)
(3.78481 0.0383432 0)
(3.76437 0.0389981 0)
(3.78141 0.0386146 0)
(3.76066 0.0392754 0)
(3.77768 0.038855 0)
(3.75665 0.0395205 0)
(3.77363 0.0390605 0)
(3.75236 0.0397291 0)
(3.76925 0.0392264 0)
(3.74778 0.0398963 0)
(3.76455 0.0393477 0)
(3.74292 0.0400166 0)
(3.75953 0.0394185 0)
(3.73777 0.0400839 0)
(3.75418 0.0394324 0)
(3.73235 0.0400914 0)
(3.74851 0.0393825 0)
(3.72666 0.0400318 0)
(3.74252 0.0392609 0)
(3.72071 0.0398963 0)
(3.73623 0.0390577 0)
(3.71452 0.0396742 0)
(3.72965 0.0387616 0)
(3.7081 0.0393534 0)
(3.72279 0.0383604 0)
(3.70146 0.038921 0)
(3.71567 0.0378411 0)
(3.69464 0.0383635 0)
(3.7083 0.0371907 0)
(3.68764 0.0376675 0)
(3.70073 0.0363963 0)
(3.68051 0.0368203 0)
(3.69299 0.0354457 0)
(3.67326 0.0358093 0)
(3.6851 0.0343272 0)
(3.66595 0.0346229 0)
(3.67712 0.0330314 0)
(3.65861 0.0332538 0)
(3.66912 0.0315564 0)
(3.65131 0.0316987 0)
(3.66117 0.0298813 0)
(3.64413 0.0298717 0)
(3.75234 0.00288792 0)
(3.74872 0.00829602 0)
(3.75533 0.012658 0)
(3.75291 0.0163331 0)
(3.76068 0.0188149 0)
(3.75884 0.0207314 0)
(3.76687 0.0217825 0)
(3.76468 0.0227263 0)
(3.77221 0.0232324 0)
(3.76923 0.0239786 0)
(3.77613 0.0244848 0)
(3.77249 0.02532 0)
(3.77903 0.0258934 0)
(3.77504 0.0267464 0)
(3.7815 0.0272624 0)
(3.77738 0.0280182 0)
(3.78387 0.0284036 0)
(3.77968 0.0290366 0)
(3.78621 0.029304 0)
(3.78194 0.0298513 0)
(3.78848 0.0300474 0)
(3.7841 0.0305541 0)
(3.79062 0.0307155 0)
(3.78613 0.0312077 0)
(3.79262 0.0313498 0)
(3.78803 0.0318347 0)
(3.79451 0.0319595 0)
(3.78983 0.0324366 0)
(3.7963 0.0325427 0)
(3.79156 0.0330111 0)
(3.79801 0.0330985 0)
(3.79322 0.0335592 0)
(3.79967 0.0336295 0)
(3.79484 0.0340848 0)
(3.80126 0.0341404 0)
(3.7964 0.0345924 0)
(3.80281 0.0346352 0)
(3.79792 0.0350855 0)
(3.8043 0.0351166 0)
(3.7994 0.0355658 0)
(3.80575 0.0355858 0)
(3.80085 0.0360343 0)
(3.80715 0.0360434 0)
(3.80225 0.0364912 0)
(3.8085 0.0364894 0)
(3.80361 0.0369363 0)
(3.80981 0.0369235 0)
(3.80494 0.0373692 0)
(3.81107 0.0373451 0)
(3.80623 0.037789 0)
(3.81228 0.0377533 0)
(3.80748 0.0381946 0)
(3.81344 0.0381467 0)
(3.80869 0.0385843 0)
(3.81455 0.0385235 0)
(3.80986 0.0389563 0)
(3.81561 0.0388815 0)
(3.81099 0.039308 0)
(3.81662 0.0392181 0)
(3.81207 0.0396363 0)
(3.81757 0.03953 0)
(3.81311 0.0399378 0)
(3.81847 0.0398132 0)
(3.8141 0.0402081 0)
(3.81931 0.0400634 0)
(3.81504 0.0404424 0)
(3.82008 0.0402754 0)
(3.81592 0.0406352 0)
(3.82079 0.0404433 0)
(3.81675 0.0407801 0)
(3.82144 0.0405605 0)
(3.81752 0.0408703 0)
(3.82201 0.0406197 0)
(3.81823 0.040898 0)
(3.82252 0.0406128 0)
(3.81887 0.0408542 0)
(3.82295 0.0405304 0)
(3.81944 0.0407292 0)
(3.8233 0.0403621 0)
(3.81993 0.0405123 0)
(3.82357 0.0400974 0)
(3.82035 0.0401927 0)
(3.82376 0.0397252 0)
(3.82068 0.0397594 0)
(3.82385 0.0392341 0)
(3.82092 0.0392 0)
(3.82386 0.0386115 0)
(3.82107 0.0385018 0)
(3.82377 0.0378446 0)
(3.82112 0.0376522 0)
(3.82359 0.0369207 0)
(3.82108 0.0366383 0)
(3.82331 0.0358271 0)
(3.82094 0.0354474 0)
(3.82295 0.0345503 0)
(3.82071 0.0340637 0)
(3.82252 0.0330661 0)
(3.82039 0.0324433 0)
(3.82199 0.0312951 0)
(3.81995 0.0304579 0)
(3.75077 0.00221115 0)
(3.74992 0.00654348 0)
(3.75273 0.0103548 0)
(3.75288 0.0137936 0)
(3.75662 0.0164749 0)
(3.75744 0.0186806 0)
(3.76156 0.0201768 0)
(3.76243 0.0213953 0)
(3.76632 0.0221773 0)
(3.76676 0.0229675 0)
(3.77013 0.0235457 0)
(3.77006 0.0242794 0)
(3.77301 0.024863 0)
(3.77262 0.0256108 0)
(3.77537 0.0261772 0)
(3.77489 0.0268742 0)
(3.77759 0.027357 0)
(3.7771 0.0279574 0)
(3.77979 0.0283387 0)
(3.77931 0.0288494 0)
(3.78197 0.0291526 0)
(3.78145 0.0296045 0)
(3.78405 0.0298614 0)
(3.7835 0.0302821 0)
(3.78604 0.0305138 0)
(3.78545 0.0309175 0)
(3.78792 0.0311324 0)
(3.7873 0.0315233 0)
(3.78972 0.0317234 0)
(3.7891 0.032102 0)
(3.79147 0.0322877 0)
(3.79085 0.0326546 0)
(3.79318 0.0328271 0)
(3.79257 0.0331839 0)
(3.79486 0.0333453 0)
(3.79427 0.0336938 0)
(3.79653 0.033846 0)
(3.79595 0.0341877 0)
(3.79818 0.0343321 0)
(3.79762 0.0346679 0)
(3.79981 0.0348052 0)
(3.79929 0.0351355 0)
(3.80144 0.0352663 0)
(3.80095 0.035591 0)
(3.80307 0.0357154 0)
(3.80261 0.0360344 0)
(3.80469 0.0361524 0)
(3.80427 0.0364652 0)
(3.80632 0.0365766 0)
(3.80595 0.0368827 0)
(3.80796 0.036987 0)
(3.80763 0.0372856 0)
(3.80961 0.0373823 0)
(3.80933 0.0376724 0)
(3.81127 0.0377607 0)
(3.81104 0.038041 0)
(3.81295 0.0381199 0)
(3.81277 0.0383889 0)
(3.81465 0.0384571 0)
(3.81452 0.0387131 0)
(3.81636 0.038769 0)
(3.81628 0.0390098 0)
(3.81809 0.0390516 0)
(3.81807 0.0392748 0)
(3.81985 0.0393004 0)
(3.81988 0.0395033 0)
(3.82162 0.0395101 0)
(3.82172 0.0396896 0)
(3.82342 0.0396749 0)
(3.82357 0.0398276 0)
(3.82524 0.0397881 0)
(3.82544 0.0399102 0)
(3.82708 0.0398422 0)
(3.82734 0.0399294 0)
(3.82894 0.0398289 0)
(3.82925 0.0398763 0)
(3.83082 0.0397386 0)
(3.83117 0.0397411 0)
(3.8327 0.0395613 0)
(3.8331 0.0395136 0)
(3.8346 0.0392867 0)
(3.83503 0.0391835 0)
(3.83649 0.0389047 0)
(3.83696 0.0387404 0)
(3.83837 0.0384043 0)
(3.83887 0.0381735 0)
(3.84025 0.0377746 0)
(3.84076 0.0374715 0)
(3.84209 0.0370042 0)
(3.84262 0.036623 0)
(3.84391 0.0360813 0)
(3.84444 0.0356158 0)
(3.84568 0.0349933 0)
(3.84621 0.0344357 0)
(3.8474 0.033722 0)
(3.84792 0.0330574 0)
(3.84904 0.0322299 0)
(3.84953 0.0314267 0)
(3.85055 0.0304469 0)
(3.85095 0.029469 0)
(3.7502 0.00182333 0)
(3.75031 0.00542859 0)
(3.75161 0.0087554 0)
(3.7525 0.0118265 0)
(3.75454 0.0144195 0)
(3.75604 0.0166253 0)
(3.75849 0.0183154 0)
(3.76019 0.0196829 0)
(3.76262 0.0206794 0)
(3.76412 0.0215418 0)
(3.76621 0.0222193 0)
(3.76733 0.0229154 0)
(3.76906 0.0235269 0)
(3.76989 0.0242072 0)
(3.7714 0.0248104 0)
(3.77209 0.0254659 0)
(3.77353 0.0260184 0)
(3.77421 0.0266022 0)
(3.77563 0.0270707 0)
(3.77631 0.0275693 0)
(3.77772 0.0279586 0)
(3.77838 0.0283893 0)
(3.77975 0.0287235 0)
(3.78038 0.0291114 0)
(3.7817 0.0294129 0)
(3.78229 0.0297759 0)
(3.78355 0.0300575 0)
(3.78412 0.0304035 0)
(3.78533 0.0306699 0)
(3.78588 0.0310015 0)
(3.78706 0.0312542 0)
(3.7876 0.0315721 0)
(3.78876 0.031812 0)
(3.78929 0.0321175 0)
(3.79043 0.032346 0)
(3.79097 0.0326406 0)
(3.79209 0.0328595 0)
(3.79263 0.0331447 0)
(3.79374 0.0333554 0)
(3.79428 0.0336322 0)
(3.79538 0.0338356 0)
(3.79593 0.0341046 0)
(3.79701 0.0343013 0)
(3.79757 0.0345628 0)
(3.79865 0.034753 0)
(3.79922 0.0350069 0)
(3.8003 0.0351904 0)
(3.80089 0.0354365 0)
(3.80195 0.0356131 0)
(3.80256 0.0358509 0)
(3.80362 0.0360202 0)
(3.80425 0.036249 0)
(3.80531 0.0364104 0)
(3.80596 0.0366294 0)
(3.80702 0.0367819 0)
(3.80769 0.0369899 0)
(3.80876 0.0371324 0)
(3.80944 0.0373281 0)
(3.81052 0.0374593 0)
(3.81123 0.0376411 0)
(3.81231 0.0377593 0)
(3.81304 0.0379252 0)
(3.81413 0.0380284 0)
(3.81489 0.0381763 0)
(3.81598 0.0382623 0)
(3.81677 0.0383897 0)
(3.81787 0.038456 0)
(3.81869 0.0385601 0)
(3.8198 0.0386037 0)
(3.82064 0.0386813 0)
(3.82176 0.038699 0)
(3.82262 0.0387466 0)
(3.82376 0.0387347 0)
(3.82464 0.0387483 0)
(3.82579 0.0387025 0)
(3.8267 0.0386778 0)
(3.82786 0.0385938 0)
(3.82878 0.038526 0)
(3.82995 0.0383991 0)
(3.83089 0.0382837 0)
(3.83207 0.0381091 0)
(3.83303 0.0379413 0)
(3.8342 0.0377143 0)
(3.83517 0.0374894 0)
(3.83635 0.037205 0)
(3.83732 0.036918 0)
(3.8385 0.0365713 0)
(3.83947 0.0362171 0)
(3.84064 0.0358028 0)
(3.84161 0.035376 0)
(3.84276 0.0348883 0)
(3.84373 0.0343828 0)
(3.84486 0.0338145 0)
(3.8458 0.0332214 0)
(3.84691 0.0325608 0)
(3.84782 0.0318648 0)
(3.84887 0.0310928 0)
(3.84972 0.0302734 0)
(3.8507 0.0293726 0)
(3.85144 0.0284219 0)
(3.75004 0.00155694 0)
(3.75034 0.00463427 0)
(3.75113 0.00754763 0)
(3.75204 0.0102736 0)
(3.7534 0.0126928 0)
(3.75482 0.0148089 0)
(3.75658 0.0165578 0)
(3.75826 0.0180066 0)
(3.76012 0.0191519 0)
(3.76175 0.0201068 0)
(3.76343 0.0208912 0)
(3.7648 0.0216156 0)
(3.7662 0.0222732 0)
(3.76732 0.0229375 0)
(3.76852 0.0235667 0)
(3.76949 0.0242066 0)
(3.77059 0.0247993 0)
(3.77152 0.0253854 0)
(3.77261 0.02591 0)
(3.77353 0.0264201 0)
(3.77461 0.0268685 0)
(3.77553 0.0273076 0)
(3.77658 0.0276948 0)
(3.77748 0.0280831 0)
(3.77849 0.0284299 0)
(3.77934 0.028786 0)
(3.78032 0.0291076 0)
(3.78114 0.0294426 0)
(3.78208 0.0297463 0)
(3.78287 0.0300648 0)
(3.78379 0.0303532 0)
(3.78456 0.0306566 0)
(3.78546 0.030931 0)
(3.78623 0.0312204 0)
(3.78712 0.0314818 0)
(3.78788 0.0317584 0)
(3.78876 0.0320084 0)
(3.78951 0.0322738 0)
(3.79039 0.0325138 0)
(3.79114 0.0327692 0)
(3.79201 0.0330002 0)
(3.79277 0.0332465 0)
(3.79363 0.0334692 0)
(3.79439 0.0337068 0)
(3.79526 0.0339215 0)
(3.79602 0.0341505 0)
(3.79689 0.0343573 0)
(3.79766 0.0345775 0)
(3.79853 0.0347761 0)
(3.79931 0.0349872 0)
(3.80019 0.0351772 0)
(3.80097 0.0353786 0)
(3.80186 0.0355594 0)
(3.80266 0.0357504 0)
(3.80355 0.0359209 0)
(3.80437 0.0361005 0)
(3.80527 0.0362598 0)
(3.8061 0.0364266 0)
(3.80702 0.0365733 0)
(3.80786 0.0367259 0)
(3.80879 0.0368583 0)
(3.80965 0.036995 0)
(3.8106 0.0371112 0)
(3.81147 0.0372298 0)
(3.81243 0.0373276 0)
(3.81333 0.0374259 0)
(3.8143 0.0375029 0)
(3.81522 0.0375781 0)
(3.81621 0.0376314 0)
(3.81714 0.0376806 0)
(3.81815 0.037707 0)
(3.8191 0.0377269 0)
(3.82013 0.037723 0)
(3.8211 0.0377098 0)
(3.82214 0.0376715 0)
(3.82312 0.0376212 0)
(3.82418 0.0375445 0)
(3.82518 0.0374529 0)
(3.82625 0.0373335 0)
(3.82726 0.0371963 0)
(3.82834 0.0370298 0)
(3.82936 0.0368427 0)
(3.83045 0.0366247 0)
(3.83148 0.0363833 0)
(3.83257 0.0361094 0)
(3.8336 0.0358091 0)
(3.83469 0.0354746 0)
(3.83572 0.0351108 0)
(3.8368 0.0347107 0)
(3.83783 0.0342781 0)
(3.8389 0.0338069 0)
(3.83991 0.0332992 0)
(3.84096 0.0327495 0)
(3.84195 0.032158 0)
(3.84297 0.0315191 0)
(3.84392 0.0308318 0)
(3.84489 0.0300919 0)
(3.84577 0.0292995 0)
(3.84666 0.0284551 0)
(3.84745 0.0275634 0)
(3.75001 0.0013574 0)
(3.7503 0.00403745 0)
(3.75087 0.00661396 0)
(3.75164 0.00904893 0)
(3.75268 0.0112785 0)
(3.75388 0.0132777 0)
(3.75528 0.0150099 0)
(3.75676 0.0164899 0)
(3.75831 0.0177231 0)
(3.75982 0.0187618 0)
(3.7613 0.0196384 0)
(3.76266 0.0204169 0)
(3.76395 0.0211235 0)
(3.76511 0.0218012 0)
(3.76622 0.0224506 0)
(3.76724 0.0230903 0)
(3.76825 0.0237033 0)
(3.76921 0.0242979 0)
(3.7702 0.0248544 0)
(3.77115 0.0253827 0)
(3.77212 0.0258687 0)
(3.77307 0.0263273 0)
(3.77403 0.0267492 0)
(3.77495 0.0271518 0)
(3.77589 0.0275271 0)
(3.77678 0.0278915 0)
(3.77769 0.0282361 0)
(3.77855 0.0285752 0)
(3.77942 0.0288984 0)
(3.78026 0.0292185 0)
(3.78111 0.0295246 0)
(3.78192 0.0298281 0)
(3.78276 0.0301184 0)
(3.78357 0.0304066 0)
(3.78439 0.0306823 0)
(3.78519 0.0309563 0)
(3.78601 0.0312188 0)
(3.78681 0.03148 0)
(3.78763 0.0317306 0)
(3.78842 0.0319804 0)
(3.78923 0.0322205 0)
(3.79002 0.0324599 0)
(3.79084 0.0326902 0)
(3.79163 0.0329199 0)
(3.79244 0.0331409 0)
(3.79324 0.033361 0)
(3.79406 0.0335728 0)
(3.79486 0.0337834 0)
(3.79568 0.0339857 0)
(3.79649 0.0341865 0)
(3.79732 0.0343791 0)
(3.79814 0.0345696 0)
(3.79898 0.0347518 0)
(3.7998 0.0349313 0)
(3.80065 0.0351023 0)
(3.80149 0.0352699 0)
(3.80235 0.0354286 0)
(3.8032 0.035583 0)
(3.80407 0.0357282 0)
(3.80494 0.035868 0)
(3.80582 0.0359981 0)
(3.8067 0.0361217 0)
(3.8076 0.0362347 0)
(3.80849 0.0363401 0)
(3.80941 0.0364341 0)
(3.81032 0.036519 0)
(3.81125 0.0365915 0)
(3.81217 0.0366535 0)
(3.81312 0.0367019 0)
(3.81406 0.0367381 0)
(3.81502 0.0367593 0)
(3.81598 0.0367665 0)
(3.81696 0.0367572 0)
(3.81793 0.036732 0)
(3.81893 0.0366886 0)
(3.81991 0.0366272 0)
(3.82092 0.0365459 0)
(3.82192 0.0364444 0)
(3.82294 0.0363213 0)
(3.82395 0.0361758 0)
(3.82497 0.0360068 0)
(3.82599 0.0358134 0)
(3.82702 0.0355945 0)
(3.82805 0.035349 0)
(3.82908 0.0350761 0)
(3.83011 0.0347743 0)
(3.83114 0.034443 0)
(3.83216 0.0340804 0)
(3.83318 0.0336861 0)
(3.8342 0.0332578 0)
(3.83521 0.0327949 0)
(3.8362 0.0322948 0)
(3.83719 0.0317566 0)
(3.83816 0.0311771 0)
(3.83911 0.0305555 0)
(3.84003 0.0298891 0)
(3.84092 0.0291788 0)
(3.84179 0.0284242 0)
(3.84261 0.0276294 0)
(3.84339 0.0267972 0)
(3.75 0.00120136 0)
(3.75025 0.00357513 0)
(3.7507 0.00587793 0)
(3.75134 0.00807401 0)
(3.75218 0.0101243 0)
(3.75319 0.0120003 0)
(3.75434 0.0136769 0)
(3.75561 0.01515 0)
(3.75694 0.0164227 0)
(3.75829 0.0175188 0)
(3.75962 0.0184644 0)
(3.7609 0.0192981 0)
(3.76211 0.0200504 0)
(3.76325 0.0207527 0)
(3.76432 0.0214204 0)
(3.76533 0.0220665 0)
(3.76631 0.0226897 0)
(3.76725 0.0232912 0)
(3.76819 0.0238636 0)
(3.76911 0.0244066 0)
(3.77004 0.0249151 0)
(3.77096 0.0253925 0)
(3.77188 0.0258377 0)
(3.77279 0.0262573 0)
(3.77369 0.0266521 0)
(3.77458 0.027029 0)
(3.77545 0.0273886 0)
(3.77631 0.027736 0)
(3.77716 0.0280708 0)
(3.778 0.0283966 0)
(3.77882 0.0287119 0)
(3.77964 0.0290196 0)
(3.78046 0.0293177 0)
(3.78126 0.0296088 0)
(3.78207 0.0298909 0)
(3.78287 0.0301665 0)
(3.78367 0.0304339 0)
(3.78447 0.0306955 0)
(3.78526 0.0309497 0)
(3.78606 0.0311987 0)
(3.78685 0.0314409 0)
(3.78764 0.0316783 0)
(3.78844 0.0319095 0)
(3.78923 0.0321362 0)
(3.79003 0.032357 0)
(3.79083 0.0325734 0)
(3.79163 0.0327839 0)
(3.79243 0.0329899 0)
(3.79323 0.0331901 0)
(3.79405 0.0333857 0)
(3.79486 0.0335752 0)
(3.79567 0.0337598 0)
(3.79649 0.0339382 0)
(3.79732 0.0341112 0)
(3.79815 0.0342776 0)
(3.79899 0.0344381 0)
(3.79983 0.0345915 0)
(3.80068 0.0347384 0)
(3.80153 0.0348777 0)
(3.80239 0.0350096 0)
(3.80325 0.0351331 0)
(3.80413 0.0352484 0)
(3.80501 0.0353545 0)
(3.8059 0.0354514 0)
(3.80679 0.035538 0)
(3.80769 0.0356143 0)
(3.8086 0.0356792 0)
(3.80952 0.0357325 0)
(3.81044 0.0357732 0)
(3.81137 0.0358008 0)
(3.81231 0.0358143 0)
(3.81326 0.0358133 0)
(3.8142 0.0357965 0)
(3.81517 0.0357636 0)
(3.81613 0.0357132 0)
(3.8171 0.0356449 0)
(3.81807 0.0355574 0)
(3.81906 0.0354503 0)
(3.82004 0.0353221 0)
(3.82104 0.0351723 0)
(3.82202 0.0349997 0)
(3.82303 0.0348037 0)
(3.82402 0.0345829 0)
(3.82502 0.0343368 0)
(3.82601 0.034064 0)
(3.82702 0.0337639 0)
(3.828 0.0334349 0)
(3.829 0.0330766 0)
(3.82998 0.0326872 0)
(3.83097 0.0322659 0)
(3.83193 0.0318109 0)
(3.83289 0.0313214 0)
(3.83383 0.0307951 0)
(3.83476 0.0302315 0)
(3.83566 0.0296291 0)
(3.83655 0.0289881 0)
(3.83739 0.0283088 0)
(3.83822 0.0275934 0)
(3.839 0.026844 0)
(3.83976 0.0260642 0)
(3.75 0.00107639 0)
(3.75021 0.00320713 0)
(3.75058 0.00528533 0)
(3.75112 0.00728313 0)
(3.75181 0.0091717 0)
(3.75266 0.0109277 0)
(3.75364 0.0125309 0)
(3.75472 0.0139718 0)
(3.75588 0.0152494 0)
(3.75707 0.0163742 0)
(3.75827 0.0173633 0)
(3.75946 0.018241 0)
(3.76059 0.0190321 0)
(3.76168 0.0197612 0)
(3.76272 0.0204466 0)
(3.7637 0.0211015 0)
(3.76465 0.021731 0)
(3.76557 0.0223369 0)
(3.76647 0.0229168 0)
(3.76737 0.023469 0)
(3.76826 0.0239909 0)
(3.76916 0.0244824 0)
(3.77004 0.0249441 0)
(3.77093 0.0253786 0)
(3.7718 0.0257885 0)
(3.77267 0.0261776 0)
(3.77352 0.0265488 0)
(3.77437 0.0269051 0)
(3.7752 0.0272483 0)
(3.77603 0.0275803 0)
(3.77684 0.0279019 0)
(3.77765 0.0282141 0)
(3.77845 0.028517 0)
(3.77925 0.0288114 0)
(3.78004 0.0290973 0)
(3.78084 0.0293752 0)
(3.78162 0.0296453 0)
(3.78241 0.0299081 0)
(3.78319 0.0301638 0)
(3.78399 0.0304129 0)
(3.78477 0.0306555 0)
(3.78556 0.0308921 0)
(3.78634 0.0311227 0)
(3.78713 0.0313476 0)
(3.78791 0.0315668 0)
(3.78871 0.0317805 0)
(3.7895 0.0319887 0)
(3.7903 0.0321914 0)
(3.79109 0.0323885 0)
(3.79189 0.0325799 0)
(3.79269 0.0327657 0)
(3.79351 0.0329456 0)
(3.79431 0.0331195 0)
(3.79514 0.0332872 0)
(3.79595 0.0334485 0)
(3.79678 0.0336032 0)
(3.79761 0.033751 0)
(3.79845 0.0338916 0)
(3.79929 0.0340248 0)
(3.80015 0.03415 0)
(3.80099 0.0342671 0)
(3.80186 0.0343754 0)
(3.80272 0.0344747 0)
(3.80361 0.0345643 0)
(3.80448 0.0346439 0)
(3.80537 0.0347128 0)
(3.80626 0.0347706 0)
(3.80717 0.0348165 0)
(3.80807 0.0348501 0)
(3.80899 0.0348704 0)
(3.8099 0.034877 0)
(3.81084 0.034869 0)
(3.81176 0.0348458 0)
(3.81271 0.0348064 0)
(3.81365 0.0347502 0)
(3.81461 0.0346763 0)
(3.81555 0.0345839 0)
(3.81652 0.0344721 0)
(3.81747 0.0343403 0)
(3.81845 0.0341872 0)
(3.81941 0.0340124 0)
(3.82039 0.0338147 0)
(3.82134 0.0335934 0)
(3.82233 0.0333474 0)
(3.82328 0.0330761 0)
(3.82426 0.0327782 0)
(3.82521 0.0324531 0)
(3.82618 0.0320994 0)
(3.82712 0.0317164 0)
(3.82808 0.0313027 0)
(3.829 0.0308576 0)
(3.82993 0.0303794 0)
(3.83082 0.0298678 0)
(3.83172 0.0293216 0)
(3.83258 0.0287412 0)
(3.83343 0.0281265 0)
(3.83423 0.0274792 0)
(3.83503 0.0268006 0)
(3.83577 0.026093 0)
(3.83651 0.025358 0)
(3.75 0.000974469 0)
(3.75017 0.00290652 0)
(3.75049 0.00479843 0)
(3.75094 0.00662848 0)
(3.75153 0.00837445 0)
(3.75226 0.0100176 0)
(3.75309 0.0115412 0)
(3.75403 0.0129348 0)
(3.75504 0.0141948 0)
(3.7561 0.015325 0)
(3.75718 0.0163354 0)
(3.75827 0.0172416 0)
(3.75933 0.0180616 0)
(3.76036 0.0188143 0)
(3.76135 0.0195163 0)
(3.76231 0.0201807 0)
(3.76322 0.0208154 0)
(3.76412 0.0214243 0)
(3.76499 0.0220078 0)
(3.76587 0.022565 0)
(3.76672 0.0230946 0)
(3.76759 0.023596 0)
(3.76844 0.0240692 0)
(3.7693 0.0245157 0)
(3.77015 0.0249376 0)
(3.771 0.0253376 0)
(3.77183 0.0257187 0)
(3.77266 0.0260832 0)
(3.77348 0.0264336 0)
(3.77429 0.0267715 0)
(3.77509 0.0270981 0)
(3.77589 0.0274145 0)
(3.77668 0.0277212 0)
(3.77747 0.0280186 0)
(3.77825 0.0283072 0)
(3.77904 0.0285874 0)
(3.77981 0.0288593 0)
(3.78059 0.0291234 0)
(3.78137 0.0293801 0)
(3.78215 0.0296295 0)
(3.78292 0.0298722 0)
(3.7837 0.0301082 0)
(3.78448 0.0303379 0)
(3.78526 0.0305614 0)
(3.78604 0.030779 0)
(3.78683 0.0309905 0)
(3.7876 0.0311962 0)
(3.7884 0.0313961 0)
(3.78918 0.03159 0)
(3.78998 0.031778 0)
(3.79077 0.03196 0)
(3.79158 0.0321359 0)
(3.79237 0.0323054 0)
(3.79319 0.0324685 0)
(3.79399 0.032625 0)
(3.79482 0.0327746 0)
(3.79563 0.0329171 0)
(3.79647 0.0330522 0)
(3.79729 0.0331796 0)
(3.79814 0.033299 0)
(3.79898 0.03341 0)
(3.79984 0.0335122 0)
(3.80068 0.0336051 0)
(3.80156 0.0336884 0)
(3.80241 0.0337616 0)
(3.8033 0.0338241 0)
(3.80417 0.0338754 0)
(3.80507 0.0339149 0)
(3.80595 0.033942 0)
(3.80686 0.0339561 0)
(3.80775 0.0339566 0)
(3.80867 0.0339427 0)
(3.80958 0.0339138 0)
(3.81051 0.0338691 0)
(3.81142 0.0338079 0)
(3.81236 0.0337295 0)
(3.81329 0.0336331 0)
(3.81423 0.0335179 0)
(3.81516 0.0333831 0)
(3.81612 0.0332279 0)
(3.81705 0.0330516 0)
(3.818 0.0328533 0)
(3.81893 0.0326322 0)
(3.81989 0.0323874 0)
(3.82082 0.0321182 0)
(3.82177 0.0318237 0)
(3.82269 0.0315029 0)
(3.82363 0.031155 0)
(3.82454 0.0307792 0)
(3.82546 0.0303744 0)
(3.82635 0.0299399 0)
(3.82725 0.0294749 0)
(3.8281 0.028979 0)
(3.82897 0.028452 0)
(3.82979 0.0278942 0)
(3.83061 0.0273064 0)
(3.83138 0.0266897 0)
(3.83215 0.0260455 0)
(3.83286 0.0253751 0)
(3.83357 0.0246801 0)
(3.75 0.000889744 0)
(3.75015 0.00265588 0)
(3.75042 0.00439089 0)
(3.75081 0.0060771 0)
(3.75132 0.00769743 0)
(3.75194 0.00923616 0)
(3.75267 0.0106799 0)
(3.75349 0.0120187 0)
(3.75438 0.0132474 0)
(3.75532 0.0143664 0)
(3.75629 0.0153811 0)
(3.75729 0.0163011 0)
(3.75827 0.0171392 0)
(3.75924 0.0179093 0)
(3.76018 0.0186251 0)
(3.7611 0.0192985 0)
(3.76199 0.0199381 0)
(3.76286 0.0205493 0)
(3.7637 0.0211345 0)
(3.76455 0.0216942 0)
(3.76538 0.0222281 0)
(3.76621 0.0227356 0)
(3.76704 0.0232167 0)
(3.76787 0.0236722 0)
(3.76869 0.0241035 0)
(3.76952 0.0245127 0)
(3.77033 0.0249021 0)
(3.77115 0.0252741 0)
(3.77195 0.0256308 0)
(3.77275 0.025974 0)
(3.77354 0.0263051 0)
(3.77433 0.0266251 0)
(3.7751 0.0269349 0)
(3.77588 0.027235 0)
(3.77665 0.0275259 0)
(3.77743 0.0278079 0)
(3.77819 0.0280813 0)
(3.77897 0.0283465 0)
(3.77973 0.0286039 0)
(3.78051 0.0288537 0)
(3.78127 0.0290962 0)
(3.78204 0.0293317 0)
(3.78281 0.0295605 0)
(3.78359 0.0297828 0)
(3.78435 0.0299986 0)
(3.78513 0.0302082 0)
(3.7859 0.0304116 0)
(3.78669 0.0306088 0)
(3.78746 0.0307998 0)
(3.78826 0.0309846 0)
(3.78904 0.031163 0)
(3.78984 0.0313351 0)
(3.79063 0.0315006 0)
(3.79143 0.0316595 0)
(3.79223 0.0318114 0)
(3.79305 0.0319563 0)
(3.79385 0.0320939 0)
(3.79468 0.0322239 0)
(3.79549 0.032346 0)
(3.79633 0.03246 0)
(3.79716 0.0325654 0)
(3.79801 0.0326619 0)
(3.79884 0.0327491 0)
(3.7997 0.0328267 0)
(3.80055 0.0328939 0)
(3.80142 0.0329506 0)
(3.80228 0.032996 0)
(3.80316 0.0330298 0)
(3.80403 0.0330512 0)
(3.80492 0.0330598 0)
(3.8058 0.0330549 0)
(3.8067 0.0330359 0)
(3.80759 0.033002 0)
(3.80851 0.0329528 0)
(3.8094 0.0328875 0)
(3.81032 0.0328054 0)
(3.81122 0.0327057 0)
(3.81215 0.0325878 0)
(3.81306 0.0324509 0)
(3.81399 0.0322943 0)
(3.8149 0.0321173 0)
(3.81583 0.0319191 0)
(3.81674 0.0316989 0)
(3.81767 0.0314561 0)
(3.81857 0.0311897 0)
(3.8195 0.0308992 0)
(3.82039 0.0305836 0)
(3.8213 0.0302423 0)
(3.82218 0.0298744 0)
(3.82307 0.0294794 0)
(3.82393 0.0290566 0)
(3.8248 0.0286058 0)
(3.82562 0.0281265 0)
(3.82646 0.0276192 0)
(3.82724 0.0270842 0)
(3.82804 0.0265224 0)
(3.82878 0.0259346 0)
(3.82952 0.025322 0)
(3.83021 0.0246856 0)
(3.83089 0.0240268 0)
(3.75 0.000818033 0)
(3.75013 0.00244346 0)
(3.75036 0.00404419 0)
(3.7507 0.00560583 0)
(3.75115 0.00711481 0)
(3.75169 0.00855808 0)
(3.75233 0.00992469 0)
(3.75305 0.0112056 0)
(3.75384 0.0123952 0)
(3.75469 0.0134921 0)
(3.75556 0.0144986 0)
(3.75647 0.0154206 0)
(3.75738 0.0162667 0)
(3.75829 0.0170472 0)
(3.75918 0.0177727 0)
(3.76006 0.0184532 0)
(3.76091 0.0190969 0)
(3.76175 0.0197101 0)
(3.76257 0.0202961 0)
(3.76339 0.0208567 0)
(3.76419 0.0213925 0)
(3.765 0.0219034 0)
(3.7658 0.0223895 0)
(3.76661 0.0228512 0)
(3.76741 0.0232895 0)
(3.76821 0.0237058 0)
(3.769 0.0241021 0)
(3.7698 0.0244804 0)
(3.77058 0.0248425 0)
(3.77137 0.0251903 0)
(3.77214 0.0255252 0)
(3.77292 0.0258484 0)
(3.77369 0.0261608 0)
(3.77446 0.0264631 0)
(3.77521 0.0267557 0)
(3.77598 0.0270391 0)
(3.77674 0.0273136 0)
(3.7775 0.0275796 0)
(3.77826 0.0278373 0)
(3.77902 0.0280872 0)
(3.77978 0.0283295 0)
(3.78054 0.0285644 0)
(3.7813 0.0287922 0)
(3.78207 0.0290132 0)
(3.78283 0.0292273 0)
(3.7836 0.029435 0)
(3.78436 0.029636 0)
(3.78514 0.0298307 0)
(3.78591 0.0300188 0)
(3.7867 0.0302004 0)
(3.78747 0.0303755 0)
(3.78826 0.0305439 0)
(3.78904 0.0307056 0)
(3.78984 0.0308604 0)
(3.79063 0.031008 0)
(3.79144 0.0311485 0)
(3.79223 0.0312814 0)
(3.79305 0.0314066 0)
(3.79385 0.0315238 0)
(3.79468 0.0316327 0)
(3.7955 0.0317329 0)
(3.79634 0.0318242 0)
(3.79716 0.0319061 0)
(3.79801 0.0319782 0)
(3.79884 0.0320401 0)
(3.7997 0.0320914 0)
(3.80055 0.0321316 0)
(3.80142 0.0321601 0)
(3.80227 0.0321764 0)
(3.80315 0.03218 0)
(3.80401 0.0321703 0)
(3.8049 0.0321468 0)
(3.80577 0.0321088 0)
(3.80667 0.0320557 0)
(3.80755 0.0319868 0)
(3.80845 0.0319017 0)
(3.80933 0.0317994 0)
(3.81024 0.0316795 0)
(3.81113 0.0315412 0)
(3.81204 0.0313839 0)
(3.81293 0.0312068 0)
(3.81384 0.0310094 0)
(3.81472 0.0307908 0)
(3.81563 0.0305505 0)
(3.8165 0.0302877 0)
(3.8174 0.0300019 0)
(3.81827 0.0296921 0)
(3.81915 0.0293581 0)
(3.82 0.028999 0)
(3.82087 0.0286145 0)
(3.8217 0.0282042 0)
(3.82254 0.0277681 0)
(3.82333 0.027306 0)
(3.82414 0.0268184 0)
(3.8249 0.0263056 0)
(3.82567 0.0257686 0)
(3.82638 0.0252079 0)
(3.8271 0.0246246 0)
(3.82776 0.0240195 0)
(3.82843 0.0233941 0)
(3.75 0.000756428 0)
(3.75011 0.00226083 0)
(3.75032 0.00374514 0)
(3.75062 0.00519784 0)
(3.75101 0.0066076 0)
(3.75149 0.00796388 0)
(3.75205 0.00925722 0)
(3.75269 0.0104799 0)
(3.7534 0.0116264 0)
(3.75416 0.0126943 0)
(3.75495 0.013684 0)
(3.75579 0.0145989 0)
(3.75662 0.0154447 0)
(3.75747 0.0162288 0)
(3.75831 0.0169592 0)
(3.75915 0.0176441 0)
(3.75997 0.0182907 0)
(3.76078 0.018905 0)
(3.76157 0.0194911 0)
(3.76236 0.0200515 0)
(3.76314 0.0205876 0)
(3.76393 0.0210998 0)
(3.7647 0.0215884 0)
(3.76548 0.0220539 0)
(3.76626 0.0224968 0)
(3.76704 0.0229183 0)
(3.76781 0.0233197 0)
(3.76859 0.0237029 0)
(3.76936 0.0240695 0)
(3.77013 0.0244211 0)
(3.77089 0.0247591 0)
(3.77166 0.0250849 0)
(3.77241 0.0253993 0)
(3.77317 0.0257032 0)
(3.77392 0.025997 0)
(3.77467 0.0262814 0)
(3.77542 0.0265565 0)
(3.77617 0.0268229 0)
(3.77692 0.0270807 0)
(3.77768 0.0273304 0)
(3.77842 0.0275721 0)
(3.77918 0.0278062 0)
(3.77993 0.0280328 0)